/*--------------------------------*- C++ -*----------------------------------*\
| =========                 |                                                 |
| \\      /  F ield         | OpenFOAM: The Open Source CFD Toolbox           |
|  \\    /   O peration     | Version:  2112                                  |
|   \\  /    A nd           | Website:  www.openfoam.com                      |
|    \\/     M anipulation  |                                                 |
\*---------------------------------------------------------------------------*/
FoamFile
{
    version     2.0;
    format      ascii;
    arch        "LSB;label=32;scalar=64";
    class       volScalarField;
    location    "0.1";
    object      myfield;
}
// * * * * * * * * * * * * * * * * * * * * * * * * * * * * * * * * * * * * * //

dimensions      [0 0 0 0 0 0 0];

internalField   nonuniform List<scalar> 
400
(
1.06857e-09
1.24296e-09
1.83317e-09
3.39734e-09
7.0719e-09
1.50681e-08
3.13593e-08
6.23147e-08
1.16708e-07
2.04237e-07
3.31855e-07
4.9805e-07
6.87299e-07
8.6915e-07
1.00519e-06
1.06457e-06
1.03713e-06
9.38339e-07
8.16982e-07
7.33993e-07
2.81515e-09
3.17585e-09
4.57172e-09
8.51461e-09
1.81403e-08
3.97914e-08
8.53394e-08
1.74592e-07
3.35987e-07
6.02522e-07
9.99929e-07
1.52711e-06
2.13605e-06
2.72592e-06
3.16524e-06
3.34923e-06
3.24266e-06
2.89117e-06
2.46343e-06
2.16938e-06
8.95726e-09
9.76399e-09
1.36335e-08
2.53612e-08
5.50106e-08
1.23659e-07
2.72285e-07
5.71975e-07
1.12917e-06
2.07395e-06
3.51768e-06
5.47571e-06
7.78007e-06
1.00435e-05
1.17377e-05
1.24373e-05
1.19943e-05
1.05603e-05
8.81687e-06
7.60952e-06
2.85395e-08
2.99462e-08
4.02775e-08
7.4329e-08
1.63263e-07
3.74459e-07
8.43651e-07
1.8153e-06
3.67118e-06
6.90314e-06
1.19719e-05
1.90175e-05
2.74965e-05
3.59863e-05
4.24335e-05
4.51291e-05
4.34681e-05
3.78765e-05
3.10258e-05
2.62282e-05
8.94689e-08
9.00316e-08
1.15799e-07
2.10495e-07
4.65656e-07
1.085e-06
2.49243e-06
5.47853e-06
1.13284e-05
2.17842e-05
3.86194e-05
6.26387e-05
9.22816e-05
0.000122683
0.000146315
0.00015655
0.000151072
0.00013062
0.000105145
8.70442e-05
2.75793e-07
2.65507e-07
3.24485e-07
5.76619e-07
1.27633e-06
3.0041e-06
7.0018e-06
1.56568e-05
3.29915e-05
6.472e-05
0.000117111
0.000193853
0.000291163
0.000393822
0.000476204
0.000513849
0.000498617
0.000429248
0.000340472
0.000276241
8.36453e-07
7.69504e-07
8.89461e-07
1.53336e-06
3.36902e-06
7.95034e-06
1.8673e-05
4.22208e-05
9.01953e-05
0.000179762
0.000331032
0.000558297
0.000854675
0.00117749
0.00144716
0.00157921
0.0015473
0.00133222
0.0010455
0.000833102
2.49686e-06
2.1956e-06
2.39537e-06
3.97755e-06
8.5936e-06
2.01374e-05
4.72265e-05
0.000107074
0.000230208
0.000463312
0.000864237
0.00148054
0.00230711
0.00323933
0.00405655
0.00449291
0.00446358
0.0038667
0.00301974
0.00237184
7.33647e-06
6.17627e-06
6.36932e-06
1.013e-05
2.12971e-05
4.89709e-05
0.000113328
0.000254808
0.000545923
0.00110018
0.00206484
0.00357591
0.00565743
0.00809254
0.0103465
0.0116936
0.011817
0.0103828
0.00813129
0.00632935
2.12193e-05
1.71502e-05
1.68186e-05
2.55431e-05
5.16992e-05
0.00011505
0.000258935
0.00056928
0.00119987
0.00239435
0.00447997
0.00778886
0.0124576
0.0181286
0.0236974
0.0274633
0.0283422
0.0255018
0.0202199
0.0157124
6.04113e-05
4.71026e-05
4.43787e-05
6.44308e-05
0.000124346
0.000263872
0.000567976
0.00120049
0.00244964
0.00477173
0.00879402
0.0152038
0.0244237
0.0360426
0.0481885
0.0574684
0.0608628
0.0566444
0.0459819
0.0360051
0.000169331
0.000128354
0.000117788
0.000164513
0.000300632
0.000599901
0.00121367
0.00242023
0.00469272
0.00876987
0.0156803
0.0266236
0.0425544
0.0633049
0.0863852
0.10623
0.116038
0.112603
0.0947389
0.0755844
0.000467654
0.000348373
0.000317028
0.000430468
0.000742251
0.00137758
0.00257982
0.00476684
0.00861312
0.0151452
0.0258016
0.0423502
0.066483
0.098731
0.136667
0.173014
0.196043
0.198772
0.175491
0.14437
0.00127486
0.000947398
0.000873604
0.0011672
0.00189795
0.00325484
0.00558468
0.00943325
0.0156241
0.02537
0.0403817
0.0628732
0.0952795
0.139203
0.193269
0.250074
0.29453
0.311143
0.290958
0.249525
0.0034429
0.0026044
0.00249073
0.00330475
0.00506816
0.00800971
0.0125391
0.0192447
0.0289543
0.0428549
0.0626555
0.090715
0.129943
0.183061
0.250532
0.326864
0.396626
0.435996
0.431756
0.388927
0.00927477
0.00732035
0.00741729
0.00977806
0.0141122
0.0205308
0.0293305
0.040935
0.0559391
0.075236
0.100215
0.132992
0.176474
0.234136
0.308467
0.397273
0.488204
0.555863
0.576517
0.546786
0.0252233
0.0213025
0.0231133
0.0299031
0.0403496
0.0539441
0.0704593
0.0898361
0.112201
0.137973
0.168043
0.204016
0.248351
0.304567
0.376584
0.466033
0.566335
0.655928
0.703729
0.6979
0.0702888
0.0650132
0.0739615
0.0917874
0.114544
0.140352
0.168077
0.197075
0.227094
0.258254
0.291106
0.326778
0.367127
0.415098
0.474794
0.550337
0.641512
0.735595
0.802945
0.820361
0.203462
0.205418
0.231547
0.267318
0.305377
0.342794
0.378354
0.411699
0.442951
0.472513
0.501009
0.529304
0.558696
0.591151
0.62961
0.678025
0.739872
0.812593
0.877803
0.907534
0.602385
0.614516
0.643507
0.676297
0.706323
0.732094
0.753832
0.772218
0.787978
0.801759
0.814115
0.825535
0.836585
0.847968
0.860657
0.876022
0.895739
0.920925
0.949408
0.969317
)
;

boundaryField
{
    movingWall
    {
        type            fixedValue;
        value           uniform 1;
    }
    fixedWalls
    {
        type            zeroGradient;
    }
    frontAndBack
    {
        type            empty;
    }
}


// ************************************************************************* //
