/*--------------------------------*- C++ -*----------------------------------*\
| =========                 |                                                 |
| \\      /  F ield         | OpenFOAM: The Open Source CFD Toolbox           |
|  \\    /   O peration     | Version:  2112                                  |
|   \\  /    A nd           | Website:  www.openfoam.com                      |
|    \\/     M anipulation  |                                                 |
\*---------------------------------------------------------------------------*/
FoamFile
{
    version     2.0;
    format      ascii;
    arch        "LSB;label=32;scalar=64";
    class       volScalarField;
    location    "0.5";
    object      myfield;
}
// * * * * * * * * * * * * * * * * * * * * * * * * * * * * * * * * * * * * * //

dimensions      [0 0 0 0 0 0 0];

internalField   nonuniform List<scalar> 
400
(
0.00904588
0.010751
0.0142715
0.0197494
0.0272572
0.0367024
0.04777
0.0599252
0.0724745
0.0846599
0.0957584
0.105154
0.112388
0.117213
0.119613
0.119885
0.118422
0.115979
0.113496
0.111929
0.0102119
0.0121924
0.0163127
0.0227752
0.03169
0.0429527
0.0561739
0.0706901
0.0856493
0.100134
0.113279
0.124354
0.132819
0.138365
0.140943
0.140962
0.138749
0.135261
0.131714
0.129428
0.0125188
0.0150298
0.0203119
0.0286787
0.0403108
0.055087
0.0724901
0.0916317
0.111377
0.130514
0.147901
0.162564
0.173751
0.180986
0.184148
0.183752
0.180058
0.17441
0.168598
0.164745
0.015935
0.0192174
0.0262073
0.0373843
0.0530286
0.0729884
0.0965581
0.122524
0.14935
0.175405
0.199155
0.219267
0.234673
0.244634
0.248899
0.248124
0.242376
0.233536
0.224238
0.217857
0.0204283
0.0247134
0.0339517
0.0488441
0.0697838
0.0965446
0.128133
0.162882
0.198721
0.233498
0.265217
0.292159
0.312925
0.326488
0.332401
0.331612
0.323666
0.311048
0.297345
0.287577
0.0259577
0.0314664
0.0434809
0.0629681
0.0904112
0.125407
0.166512
0.211425
0.257408
0.301729
0.341969
0.376128
0.40262
0.420256
0.42834
0.42827
0.41874
0.402654
0.384405
0.370836
0.0324614
0.0393977
0.0546823
0.0795627
0.114527
0.158805
0.210259
0.265737
0.321727
0.374961
0.422783
0.4632
0.494746
0.516337
0.527264
0.52872
0.519231
0.501212
0.479469
0.46247
0.0398452
0.0483877
0.0673703
0.0982839
0.141444
0.195426
0.257084
0.322213
0.386516
0.446402
0.499353
0.543824
0.578887
0.603869
0.618155
0.62221
0.615162
0.59785
0.574906
0.555781
0.0479777
0.0582671
0.0812705
0.118608
0.170137
0.233397
0.303921
0.37636
0.44582
0.508799
0.563437
0.609131
0.645845
0.673546
0.691741
0.699727
0.697599
0.684121
0.66303
0.643809
0.05669
0.0688168
0.0960154
0.13982
0.199236
0.27036
0.347207
0.423423
0.493962
0.555991
0.60882
0.653139
0.69
0.720052
0.742847
0.756798
0.761031
0.754263
0.737995
0.720884
0.0657856
0.0797752
0.111148
0.161021
0.227081
0.303655
0.383303
0.459139
0.526636
0.584222
0.632642
0.673915
0.710363
0.743061
0.771359
0.79288
0.80485
0.806397
0.797064
0.78382
0.0750615
0.0908536
0.126131
0.181142
0.251786
0.33053
0.40892
0.480317
0.541426
0.592605
0.636385
0.675529
0.712437
0.747922
0.781221
0.810729
0.8322
0.842086
0.840722
0.832268
0.0843542
0.101765
0.140358
0.198953
0.271323
0.348342
0.421211
0.484412
0.537827
0.582573
0.62149
0.658559
0.696746
0.737038
0.777981
0.815693
0.846418
0.865549
0.871679
0.868165
0.0936509
0.112291
0.15317
0.213076
0.28357
0.354428
0.418913
0.474487
0.519889
0.557964
0.592959
0.629052
0.669293
0.714636
0.763365
0.811073
0.851544
0.880337
0.893659
0.894688
0.103387
0.122482
0.164005
0.222181
0.286925
0.349829
0.405712
0.452196
0.490645
0.524434
0.55768
0.594239
0.63708
0.687213
0.74311
0.800301
0.851754
0.889545
0.910069
0.915105
0.115284
0.133446
0.17343
0.226899
0.283824
0.337613
0.384461
0.424298
0.459092
0.491809
0.525793
0.564298
0.609599
0.66289
0.723474
0.787648
0.848076
0.895341
0.923174
0.932019
0.13473
0.14996
0.186702
0.234393
0.284026
0.329553
0.370731
0.408106
0.443007
0.477223
0.512921
0.552613
0.598252
0.651491
0.712725
0.779487
0.844985
0.899622
0.934525
0.947197
0.17804
0.188921
0.223084
0.266717
0.311674
0.3554
0.396527
0.435156
0.472008
0.5081
0.544664
0.583084
0.624857
0.671562
0.724463
0.783604
0.846384
0.904914
0.945311
0.961583
0.296881
0.308279
0.345223
0.390149
0.435442
0.478751
0.519135
0.556483
0.591134
0.623681
0.654876
0.685552
0.716822
0.749993
0.78651
0.827625
0.873373
0.920082
0.957738
0.975586
0.649023
0.661865
0.690687
0.723081
0.752991
0.779024
0.801332
0.820492
0.837146
0.85189
0.865244
0.877657
0.889629
0.901692
0.914436
0.928484
0.944319
0.961735
0.978771
0.989911
)
;

boundaryField
{
    movingWall
    {
        type            fixedValue;
        value           uniform 1;
    }
    fixedWalls
    {
        type            zeroGradient;
    }
    frontAndBack
    {
        type            empty;
    }
}


// ************************************************************************* //
