/*--------------------------------*- C++ -*----------------------------------*\
| =========                 |                                                 |
| \\      /  F ield         | OpenFOAM: The Open Source CFD Toolbox           |
|  \\    /   O peration     | Version:  2112                                  |
|   \\  /    A nd           | Website:  www.openfoam.com                      |
|    \\/     M anipulation  |                                                 |
\*---------------------------------------------------------------------------*/
FoamFile
{
    version     2.0;
    format      ascii;
    arch        "LSB;label=32;scalar=64";
    class       volScalarField;
    location    "0.4";
    object      myfield;
}
// * * * * * * * * * * * * * * * * * * * * * * * * * * * * * * * * * * * * * //

dimensions      [0 0 0 0 0 0 0];

internalField   nonuniform List<scalar> 
400
(
0.0017793
0.00228392
0.00336667
0.00515046
0.00776877
0.0113142
0.0157872
0.0210609
0.0268756
0.0328649
0.0386062
0.0436743
0.0476978
0.0504185
0.0517319
0.0517559
0.0506932
0.0490143
0.0473301
0.0462715
0.00214034
0.00276714
0.00412452
0.00638503
0.00973671
0.0143126
0.0201187
0.0269869
0.0345695
0.0423784
0.0498521
0.0564291
0.0616195
0.0650739
0.0666427
0.0664996
0.0648331
0.0622896
0.0597261
0.0580818
0.00287581
0.00374909
0.00566357
0.00889237
0.0137358
0.0204134
0.0289514
0.0391096
0.0503752
0.0620217
0.0732078
0.0830809
0.0908773
0.0960224
0.098256
0.0978218
0.0948751
0.0904345
0.0858992
0.0829114
0.00401337
0.00526699
0.00804967
0.0127966
0.0199876
0.0299805
0.0428358
0.0582038
0.0753177
0.0930842
0.11023
0.125445
0.137528
0.145529
0.148981
0.148252
0.143329
0.135813
0.12797
0.122637
0.00559061
0.00737208
0.0113736
0.0182654
0.0287805
0.0434616
0.0623974
0.0850608
0.110313
0.136548
0.161916
0.184517
0.20259
0.214704
0.220059
0.219304
0.211922
0.200268
0.187734
0.178909
0.00764589
0.0101158
0.0157246
0.0254562
0.0403633
0.0611908
0.0879979
0.119953
0.155381
0.192019
0.227338
0.258821
0.284164
0.301473
0.309513
0.309399
0.299703
0.283483
0.265316
0.252012
0.0102079
0.013535
0.0211625
0.0344601
0.0548343
0.0831833
0.11939
0.162105
0.208918
0.256793
0.302548
0.343192
0.376106
0.399153
0.410867
0.412269
0.401536
0.381596
0.357967
0.339834
0.013286
0.0176378
0.0276917
0.0452481
0.0720334
0.108944
0.155422
0.209312
0.267277
0.325509
0.380391
0.428847
0.468386
0.497021
0.513237
0.517418
0.508153
0.486942
0.459646
0.437431
0.0168634
0.0223927
0.0352387
0.0576225
0.0914517
0.137332
0.193892
0.257879
0.324956
0.390758
0.45169
0.505172
0.549388
0.582921
0.60435
0.612892
0.608288
0.589523
0.561917
0.537605
0.0208946
0.0277231
0.0436369
0.0711828
0.112176
0.166517
0.231635
0.303014
0.375503
0.444664
0.507551
0.562664
0.609337
0.646997
0.674366
0.689486
0.692079
0.67986
0.656052
0.632471
0.0253112
0.0335084
0.0526198
0.0853091
0.132887
0.194082
0.26487
0.339626
0.412912
0.480882
0.541824
0.595652
0.643158
0.684591
0.718724
0.742941
0.754231
0.751818
0.735455
0.715468
0.0300418
0.0395969
0.0618258
0.0991652
0.15191
0.217243
0.289741
0.363242
0.432907
0.496095
0.553039
0.604845
0.652938
0.69773
0.738589
0.77307
0.79565
0.803798
0.797236
0.78291
0.0350629
0.045839
0.0708164
0.111724
0.167329
0.233156
0.302777
0.370053
0.432636
0.490072
0.542567
0.592554
0.642374
0.692616
0.741276
0.784328
0.819216
0.838606
0.842235
0.834444
0.0405252
0.0521741
0.0791361
0.121842
0.17712
0.238911
0.301499
0.361915
0.416995
0.467051
0.514757
0.563233
0.615004
0.670782
0.728696
0.784058
0.829509
0.860737
0.873713
0.872383
0.0470839
0.0588973
0.0865876
0.128712
0.18038
0.235551
0.290432
0.341621
0.388692
0.433152
0.477929
0.526125
0.580303
0.641233
0.707172
0.77321
0.831534
0.873958
0.896084
0.900416
0.0567839
0.0675337
0.0944421
0.13385
0.179823
0.227074
0.27329
0.317186
0.359121
0.400846
0.44492
0.494106
0.550216
0.614278
0.685421
0.759505
0.828417
0.881777
0.912765
0.922133
0.0755467
0.0835209
0.108825
0.145139
0.186215
0.228959
0.270496
0.310667
0.350509
0.391292
0.434775
0.48323
0.538382
0.601703
0.673355
0.750388
0.825148
0.887044
0.926282
0.940348
0.120967
0.125456
0.151375
0.187904
0.228262
0.26988
0.311406
0.352449
0.393211
0.434343
0.476824
0.521859
0.570915
0.625556
0.686989
0.755072
0.826737
0.893061
0.938591
0.956859
0.24825
0.255916
0.289657
0.332657
0.377225
0.42063
0.46192
0.500916
0.537857
0.573256
0.60781
0.642315
0.67789
0.715882
0.757785
0.804871
0.85703
0.910008
0.952527
0.972621
0.625211
0.637919
0.667294
0.700503
0.731207
0.757945
0.780917
0.800769
0.818197
0.83383
0.848209
0.861789
0.875084
0.888646
0.903093
0.919078
0.937092
0.956854
0.976116
0.988676
)
;

boundaryField
{
    movingWall
    {
        type            fixedValue;
        value           uniform 1;
    }
    fixedWalls
    {
        type            zeroGradient;
    }
    frontAndBack
    {
        type            empty;
    }
}


// ************************************************************************* //
