/*--------------------------------*- C++ -*----------------------------------*\
| =========                 |                                                 |
| \\      /  F ield         | OpenFOAM: The Open Source CFD Toolbox           |
|  \\    /   O peration     | Version:  2112                                  |
|   \\  /    A nd           | Website:  www.openfoam.com                      |
|    \\/     M anipulation  |                                                 |
\*---------------------------------------------------------------------------*/
FoamFile
{
    version     2.0;
    format      ascii;
    arch        "LSB;label=32;scalar=64";
    class       volScalarField;
    location    "0.2";
    object      myfield;
}
// * * * * * * * * * * * * * * * * * * * * * * * * * * * * * * * * * * * * * //

dimensions      [0 0 0 0 0 0 0];

internalField   nonuniform List<scalar> 
400
(
1.44024e-06
2.38338e-06
4.81426e-06
9.96203e-06
1.99678e-05
3.8046e-05
6.83422e-05
0.00011524
0.000182023
0.000269107
0.000372457
0.00048281
0.000586491
0.000668319
0.000715712
0.000723985
0.000694209
0.000639759
0.000582186
0.000545126
2.34374e-06
3.9264e-06
8.0898e-06
1.71322e-05
3.51716e-05
6.85803e-05
0.000125829
0.000216173
0.000346917
0.000519656
0.000726701
0.000949259
0.00115902
0.00132391
0.00141668
0.00142933
0.00136027
0.00123823
0.0011093
0.00102528
4.54371e-06
7.68116e-06
1.61185e-05
3.49116e-05
7.33707e-05
0.000146348
0.000274229
0.000480151
0.00078357
0.00119092
0.00168615
0.00222503
0.00273776
0.00314258
0.00336786
0.00339533
0.00321165
0.00288993
0.00254815
0.00232203
8.92686e-06
1.51331e-05
3.21782e-05
7.10051e-05
0.000152231
0.000309614
0.000590829
0.00105189
0.00174267
0.00268465
0.00384691
0.00512936
0.0063653
0.00735222
0.00790678
0.00798192
0.0075259
0.00671451
0.00584083
0.00525144
1.7089e-05
2.88653e-05
6.19034e-05
0.000138735
0.000302614
0.000625897
0.00121316
0.00219078
0.00367653
0.00573051
0.00829941
0.0111733
0.0139829
0.0162633
0.017579
0.0178034
0.0167849
0.0148978
0.012821
0.0113868
3.1705e-05
5.2976e-05
0.000114003
0.000258674
0.000572407
0.00120034
0.00235564
0.0043008
0.00728819
0.0114608
0.0167359
0.0227091
0.028634
0.0335399
0.0364843
0.0371349
0.0351339
0.0311483
0.0266199
0.0234046
5.71539e-05
9.36447e-05
0.000200958
0.000459854
0.00102865
0.0021786
0.00431084
0.00792309
0.0135006
0.0213338
0.0313033
0.0426966
0.0541544
0.0638598
0.0699781
0.0717029
0.0683618
0.0608339
0.0518869
0.0453133
0.000100633
0.000159928
0.000339497
0.000779571
0.00175473
0.00373496
0.00741257
0.0136414
0.0232504
0.036741
0.05394
0.0737077
0.0938385
0.111326
0.122995
0.127074
0.122645
0.110164
0.0943557
0.0822226
0.000174326
0.000265088
0.000550772
0.00126086
0.0028392
0.00603653
0.0119402
0.0218633
0.0370499
0.0582303
0.0851393
0.116135
0.148067
0.176593
0.196885
0.20545
0.201618
0.183899
0.159286
0.13927
0.000299937
0.00042932
0.000860772
0.00194765
0.00435533
0.00918155
0.0179671
0.0325047
0.0544189
0.0845991
0.122642
0.16645
0.212105
0.254168
0.286287
0.302517
0.302656
0.28203
0.248836
0.219625
0.000518654
0.000686085
0.00130296
0.00288025
0.00633666
0.0131288
0.0252074
0.0447244
0.073515
0.112491
0.161118
0.217092
0.276205
0.332517
0.378745
0.407341
0.414986
0.397416
0.359497
0.322175
0.000913777
0.00109758
0.00192897
0.00410002
0.00876716
0.0176644
0.0329748
0.0569544
0.0914064
0.137161
0.193695
0.25893
0.32906
0.398428
0.4596
0.503883
0.523848
0.516789
0.481441
0.440225
0.00166357
0.00179379
0.00284369
0.00568792
0.0116309
0.0224958
0.0404175
0.0674635
0.105225
0.154485
0.214989
0.285336
0.362749
0.442497
0.517623
0.578958
0.616369
0.624981
0.600997
0.562451
0.00316867
0.00307622
0.00431333
0.00790755
0.0151314
0.0276374
0.047229
0.0755802
0.114034
0.163478
0.224198
0.295674
0.376443
0.463168
0.549825
0.627354
0.684609
0.711468
0.705484
0.676223
0.00637893
0.00570779
0.00709851
0.0116547
0.0203393
0.0343769
0.0550558
0.083583
0.121053
0.168479
0.226799
0.296652
0.377618
0.467388
0.561433
0.651996
0.727203
0.774275
0.787275
0.771749
0.0136924
0.0117818
0.0135271
0.0198322
0.0309179
0.0473323
0.0697396
0.0988504
0.135458
0.180505
0.235144
0.30064
0.377702
0.466251
0.5634
0.661804
0.750446
0.815497
0.845904
0.844997
0.0315674
0.0275861
0.0310806
0.0416335
0.0579318
0.0794744
0.106121
0.137991
0.175452
0.219164
0.270127
0.329623
0.398957
0.47917
0.570025
0.668134
0.763697
0.841038
0.886369
0.897653
0.0787319
0.0734089
0.0838615
0.10466
0.131578
0.162632
0.196739
0.233426
0.272689
0.314912
0.360856
0.411616
0.468635
0.533599
0.607954
0.691545
0.779779
0.860195
0.914582
0.934674
0.213045
0.215059
0.241985
0.279184
0.319173
0.359014
0.397568
0.434606
0.470405
0.505535
0.540771
0.577039
0.615566
0.657887
0.705792
0.760878
0.822993
0.8868
0.938171
0.961981
0.608517
0.620523
0.649329
0.682064
0.712245
0.738405
0.760782
0.780079
0.797054
0.812394
0.826694
0.840467
0.854283
0.868762
0.884629
0.902679
0.923536
0.946896
0.970041
0.985192
)
;

boundaryField
{
    movingWall
    {
        type            fixedValue;
        value           uniform 1;
    }
    fixedWalls
    {
        type            zeroGradient;
    }
    frontAndBack
    {
        type            empty;
    }
}


// ************************************************************************* //
