/*--------------------------------*- C++ -*----------------------------------*\
| =========                 |                                                 |
| \\      /  F ield         | OpenFOAM: The Open Source CFD Toolbox           |
|  \\    /   O peration     | Version:  2112                                  |
|   \\  /    A nd           | Website:  www.openfoam.com                      |
|    \\/     M anipulation  |                                                 |
\*---------------------------------------------------------------------------*/
FoamFile
{
    version     2.0;
    format      ascii;
    arch        "LSB;label=32;scalar=64";
    class       volScalarField;
    location    "0.3";
    object      myfield;
}
// * * * * * * * * * * * * * * * * * * * * * * * * * * * * * * * * * * * * * //

dimensions      [0 0 0 0 0 0 0];

internalField   nonuniform List<scalar> 
400
(
0.000129239
0.000186701
0.000318653
0.00055809
0.000950818
0.00154767
0.00239132
0.00349973
0.00485121
0.00637668
0.00796296
0.00946573
0.0107319
0.0116306
0.0120818
0.0120939
0.0117132
0.0111007
0.0104807
0.010089
0.000173042
0.000252887
0.000438601
0.000781058
0.001352
0.00223256
0.00349239
0.00516305
0.00721378
0.00953889
0.0119623
0.0142583
0.0161871
0.01754
0.0181855
0.0181517
0.0174729
0.0164119
0.0153337
0.0146407
0.000267373
0.000395598
0.000698398
0.00126663
0.00223075
0.0037417
0.00593353
0.00887404
0.0125189
0.0166863
0.021062
0.0252337
0.028752
0.0312127
0.0323533
0.0322341
0.0308461
0.0286936
0.026483
0.0250309
0.000425538
0.000635592
0.00113879
0.00209765
0.00374872
0.0063706
0.0102174
0.0154287
0.021944
0.0294533
0.0374005
0.0450385
0.051532
0.0561049
0.0582279
0.0580323
0.0553507
0.051135
0.0467265
0.0437527
0.000666632
0.00100245
0.00181775
0.00339195
0.00613482
0.0105334
0.0170375
0.0259033
0.0370456
0.049952
0.0636864
0.076976
0.0883771
0.096517
0.100394
0.100286
0.0956205
0.0880409
0.0799032
0.0742452
0.00101404
0.00153181
0.00280454
0.00528913
0.00965606
0.016701
0.0271534
0.0414218
0.0593612
0.080147
0.102297
0.123811
0.142423
0.155954
0.162752
0.163162
0.156032
0.143752
0.130075
0.120229
0.00149338
0.00226152
0.00417097
0.00793018
0.0145705
0.0252969
0.0411805
0.0627692
0.0897611
0.120866
0.153889
0.185969
0.213922
0.234696
0.245908
0.247701
0.238427
0.220762
0.200066
0.184533
0.00213013
0.00322666
0.00597953
0.0114283
0.0210578
0.0365474
0.0592967
0.0898789
0.127649
0.170668
0.215933
0.259764
0.298223
0.327574
0.344771
0.349349
0.339696
0.317544
0.289661
0.267615
0.00294766
0.00445424
0.00826895
0.015832
0.0291332
0.050302
0.0809223
0.121345
0.170325
0.225135
0.282047
0.336881
0.385417
0.423719
0.448307
0.45752
0.450862
0.427305
0.39429
0.366345
0.00396743
0.00595905
0.0110396
0.0210858
0.0385585
0.0658728
0.104495
0.154209
0.212945
0.277231
0.342967
0.406065
0.462692
0.509336
0.542468
0.558708
0.558951
0.538984
0.505256
0.47387
0.00521501
0.00774382
0.0142429
0.0269978
0.0487786
0.0819605
0.127484
0.184259
0.249382
0.318978
0.389168
0.456638
0.518603
0.572452
0.6149
0.641831
0.651148
0.640611
0.611888
0.580968
0.00673959
0.0098098
0.0177811
0.0332266
0.0589135
0.096738
0.146744
0.206906
0.273832
0.343902
0.41401
0.482106
0.547098
0.607279
0.659645
0.699192
0.72083
0.723357
0.704818
0.678566
0.00866566
0.0121921
0.0215323
0.0393091
0.067848
0.108143
0.159211
0.218351
0.282347
0.349113
0.416937
0.484711
0.551878
0.616947
0.677365
0.730424
0.767475
0.783662
0.778663
0.760269
0.0113234
0.0150612
0.0254506
0.0448018
0.0745095
0.114395
0.162502
0.216753
0.275545
0.33682
0.400155
0.466143
0.535288
0.60676
0.677482
0.741063
0.793149
0.824358
0.832839
0.823777
0.015582
0.0190155
0.0299247
0.0498465
0.0788882
0.115957
0.159428
0.207568
0.259088
0.313869
0.372624
0.436579
0.506794
0.582691
0.661747
0.738403
0.803579
0.849654
0.870563
0.870658
0.0237401
0.0259489
0.036908
0.0568491
0.0845417
0.11842
0.156916
0.198861
0.244382
0.294152
0.349477
0.411969
0.481703
0.558961
0.642447
0.727524
0.805271
0.86424
0.896944
0.904812
0.0420909
0.0418528
0.0533483
0.0743885
0.102167
0.13475
0.171151
0.211
0.254059
0.300766
0.352117
0.409769
0.475107
0.549229
0.631896
0.719578
0.803803
0.873178
0.91603
0.930474
0.0889524
0.0866136
0.102673
0.129767
0.162783
0.199276
0.238056
0.278705
0.321118
0.365595
0.41281
0.463636
0.5194
0.581576
0.651277
0.728135
0.80838
0.881652
0.931516
0.951224
0.221548
0.225284
0.254679
0.29425
0.3364
0.37821
0.418595
0.457368
0.494791
0.53138
0.567825
0.604894
0.643688
0.685559
0.732027
0.784355
0.842234
0.900781
0.947558
0.969528
0.612536
0.624784
0.653874
0.686918
0.717464
0.744039
0.766874
0.786657
0.804133
0.819971
0.83474
0.848913
0.863015
0.877614
0.893345
0.910888
0.930731
0.952507
0.973706
0.987496
)
;

boundaryField
{
    movingWall
    {
        type            fixedValue;
        value           uniform 1;
    }
    fixedWalls
    {
        type            zeroGradient;
    }
    frontAndBack
    {
        type            empty;
    }
}


// ************************************************************************* //
